<?xml version="1.0"?>
<VTKFile type="UnstructuredGrid" version="0.1" byte_order="LittleEndian" compressor="vtkZLibDataCompressor">
  <UnstructuredGrid>
    <Piece NumberOfPoints="1344" NumberOfCells="0">
      <PointData>
        <DataArray type="Float64" Name="3DColor" NumberOfComponents="3" format="ascii" RangeMin="0.375" RangeMax="1.5426868809">
0.5 0.5 0.5 
0.25 0.5 0.5 
0.75 0.5 0.5 
0.125 0.5 0.5 
0.375 0.5 0.5 
0.625 0.5 0.5 
0.875 0.5 0.5 
0.5 0.25 0.5 
0.5 0.75 0.5 
0.5 0.125 0.5 
0.5 0.375 0.5 
0.5 0.625 0.5 
0.5 0.875 0.5 
0.25 0.25 0.5 
0.25 0.75 0.5 
0.75 0.25 0.5 
0.75 0.75 0.5 
0.5 0.5 0.25 
0.5 0.5 0.75 
0.5 0.5 0.125 
0.5 0.5 0.375 
0.5 0.5 0.625 
0.5 0.5 0.875 
0.25 0.5 0.25 
0.25 0.5 0.75 
0.75 0.5 0.25 
0.75 0.5 0.75 
0.5 0.25 0.25 
0.5 0.25 0.75 
0.5 0.75 0.25 
0.5 0.75 0.75 
0.25 0.5 0.125 
0.75 0.5 0.125 
0.5 0.25 0.125 
0.5 0.75 0.125 
0.5 0.5 0.0625 
0.5 0.5 0.1875 
0.25 0.5 0.875 
0.75 0.5 0.875 
0.5 0.25 0.875 
0.5 0.75 0.875 
0.5 0.5 0.8125 
0.5 0.5 0.9375 
0.25 0.5 0.0625 
0.75 0.5 0.0625 
0.5 0.25 0.0625 
0.5 0.75 0.0625 
0.5 0.5 0.03125 
0.5 0.5 0.09375 
0.25 0.5 0.9375 
0.75 0.5 0.9375 
0.5 0.25 0.9375 
0.5 0.75 0.9375 
0.5 0.5 0.90625 
0.5 0.5 0.96875 
0.25 0.5 0.03125 
0.75 0.5 0.03125 
0.5 0.25 0.03125 
0.5 0.75 0.03125 
0.5 0.5 0.015625 
0.5 0.5 0.046875 
</DataArray>
      </PointData>
      <CellData>
      </CellData>
      <Points>
        <DataArray type="Float64" Name="Points" NumberOfComponents="3" format="ascii" RangeMin="0.375" RangeMax="1.5426868809">
0.5 0.5 0.5 
0.25 0.5 0.5 
0.75 0.5 0.5 
0.125 0.5 0.5 
0.375 0.5 0.5 
0.625 0.5 0.5 
0.875 0.5 0.5 
0.5 0.25 0.5 
0.5 0.75 0.5 
0.5 0.125 0.5 
0.5 0.375 0.5 
0.5 0.625 0.5 
0.5 0.875 0.5 
0.25 0.25 0.5 
0.25 0.75 0.5 
0.75 0.25 0.5 
0.75 0.75 0.5 
0.5 0.5 0.25 
0.5 0.5 0.75 
0.5 0.5 0.125 
0.5 0.5 0.375 
0.5 0.5 0.625 
0.5 0.5 0.875 
0.25 0.5 0.25 
0.25 0.5 0.75 
0.75 0.5 0.25 
0.75 0.5 0.75 
0.5 0.25 0.25 
0.5 0.25 0.75 
0.5 0.75 0.25 
0.5 0.75 0.75 
0.25 0.5 0.125 
0.75 0.5 0.125 
0.5 0.25 0.125 
0.5 0.75 0.125 
0.5 0.5 0.0625 
0.5 0.5 0.1875 
0.25 0.5 0.875 
0.75 0.5 0.875 
0.5 0.25 0.875 
0.5 0.75 0.875 
0.5 0.5 0.8125 
0.5 0.5 0.9375 
0.25 0.5 0.0625 
0.75 0.5 0.0625 
0.5 0.25 0.0625 
0.5 0.75 0.0625 
0.5 0.5 0.03125 
0.5 0.5 0.09375 
0.25 0.5 0.9375 
0.75 0.5 0.9375 
0.5 0.25 0.9375 
0.5 0.75 0.9375 
0.5 0.5 0.90625 
0.5 0.5 0.96875 
0.25 0.5 0.03125 
0.75 0.5 0.03125 
0.5 0.25 0.03125 
0.5 0.75 0.03125 
0.5 0.5 0.015625 
0.5 0.5 0.046875 
</DataArray>
      </Points>
      <Cells>
        <DataArray type="Int64" Name="connectivity" format="ascii" RangeMin="1e+299" RangeMax="-1e+299">
        </DataArray>
        <DataArray type="Int64" Name="offsets" format="ascii" RangeMin="1e+299" RangeMax="-1e+299">
        </DataArray>
        <DataArray type="UInt8" Name="types" format="ascii" RangeMin="1e+299" RangeMax="-1e+299">
        </DataArray>
      </Cells>
    </Piece>
  </UnstructuredGrid>
</VTKFile>
